Linux 6.8.0-59-generic (noble-sunbeam) 	05/14/25 	_x86_64_	(6 CPU)

# Time          USER       PID    %usr %system  %guest   %wait    %CPU   CPU  minflt/s  majflt/s     VSZ     RSS   %MEM StkSize  StkRef   kB_rd/s   kB_wr/s kB_ccwr/s iodelay   cswch/s nvcswch/s threads   fd-nr prio policy  Command
14:23:42        root         1    2.9%    1.3%    0.0%    0.2%    4.1%     2      6.70      0.00   36.8M   27.9M   0.2%  132.0k   56.0k     17.5k     21.3k    140.9B       0      2.57     15.90       1     281    0 NORMAL  systemd
14:23:42        root         2    0.0%    0.0%    0.0%    0.0%    0.0%     0      0.00      0.00    0.0k    0.0k   0.0%    0.0k    0.0k      0.0B      0.0B      0.0B       0      0.04      0.00       1       0    0 NORMAL  kthreadd
14:23:42        root         3    0.0%    0.0%    0.0%    0.0%    0.0%     1      0.00      0.00    0.0k    0.0k   0.0%    0.0k    0.0k      0.0B      0.0B      0.0B       0      0.00      0.00       1       0    0 NORMAL  pool_workqueue_release
14:23:42        root         4    0.0%    0.0%    0.0%    0.0%    0.0%     0      0.00      0.00    0.0k    0.0k   0.0%    0.0k    0.0k      0.0B      0.0B      0.0B       0      0.00      0.00       1       0    0 NORMAL  kworker/R-rcu_g
14:23:42        root         5    0.0%    0.0%    0.0%    0.0%    0.0%     0      0.00      0.00    0.0k    0.0k   0.0%    0.0k    0.0k      0.0B      0.0B      0.0B       0      0.00      0.00       1       0    0 NORMAL  kworker/R-rcu_p
14:23:42        root         6    0.0%    0.0%    0.0%    0.0%    0.0%     0      0.00      0.00    0.0k    0.0k   0.0%    0.0k    0.0k      0.0B      0.0B      0.0B       0      0.00      0.00       1       0    0 NORMAL  kworker/R-slub_
14:23:42        root         7    0.0%    0.0%    0.0%    0.0%    0.0%     0      0.00      0.00    0.0k    0.0k   0.0%    0.0k    0.0k      0.0B      0.0B      0.0B       0      0.00      0.00       1       0    0 NORMAL  kworker/R-netns
14:23:42        root         9    0.0%    0.0%    0.0%    0.0%    0.0%     0      0.00      0.00    0.0k    0.0k   0.0%    0.0k    0.0k      0.0B      0.0B      0.0B       0      0.00      0.00       1       0    0 NORMAL  kworker/0:0H-events_highpri
14:23:42        root        12    0.0%    0.0%    0.0%    0.0%    0.0%     0      0.00      0.00    0.0k    0.0k   0.0%    0.0k    0.0k      0.0B      0.0B      0.0B       0      0.00      0.00       1       0    0 NORMAL  kworker/R-mm_pe
14:23:42        root        13    0.0%    0.0%    0.0%    0.0%    0.0%     0      0.00      0.00    0.0k    0.0k   0.0%    0.0k    0.0k      0.0B      0.0B      0.0B       0      0.00      0.00       1       0    0 NORMAL  rcu_tasks_kthread
14:23:42        root        14    0.0%    0.0%    0.0%    0.0%    0.0%     0      0.00      0.00    0.0k    0.0k   0.0%    0.0k    0.0k      0.0B      0.0B      0.0B       0      0.00      0.00       1       0    0 NORMAL  rcu_tasks_rude_kthread
14:23:42        root        15    0.0%    0.0%    0.0%    0.0%    0.0%     2      0.00      0.00    0.0k    0.0k   0.0%    0.0k    0.0k      0.0B      0.0B      0.0B       0      0.00      0.00       1       0    0 NORMAL  rcu_tasks_trace_kthread
14:23:42        root        16    0.0%    0.0%    0.0%    0.0%    0.0%     0      0.00      0.00    0.0k    0.0k   0.0%    0.0k    0.0k      0.0B      0.0B      0.0B       0     13.26      0.58       1       0    0 NORMAL  ksoftirqd/0
14:23:42        root        17    0.0%    0.3%    0.0%    0.6%    0.3%     4      0.00      0.00    0.0k    0.0k   0.0%    0.0k    0.0k      0.0B      0.0B      0.0B       0    175.39      0.13       1       0    0 NORMAL  rcu_preempt
14:23:42        root        18    0.0%    0.0%    0.0%    0.0%    0.0%     0      0.00      0.00    0.0k    0.0k   0.0%    0.0k    0.0k      0.0B      0.0B      0.0B       0      0.93      0.00       1       0   99   FIFO  migration/0
14:23:42        root        19    0.0%    0.0%    0.0%    0.0%    0.0%     0      0.00      0.00    0.0k    0.0k   0.0%    0.0k    0.0k      0.0B      0.0B      0.0B       0      0.00      0.00       1       0   50   FIFO  idle_inject/0
14:23:42        root        20    0.0%    0.0%    0.0%    0.0%    0.0%     0      0.00      0.00    0.0k    0.0k   0.0%    0.0k    0.0k      0.0B      0.0B      0.0B       0      0.00      0.00       1       0    0 NORMAL  cpuhp/0
14:23:42        root        21    0.0%    0.0%    0.0%    0.0%    0.0%     1      0.00      0.00    0.0k    0.0k   0.0%    0.0k    0.0k      0.0B      0.0B      0.0B       0      0.00      0.00       1       0    0 NORMAL  cpuhp/1
14:23:42        root        22    0.0%    0.0%    0.0%    0.0%    0.0%     1      0.00      0.00    0.0k    0.0k   0.0%    0.0k    0.0k      0.0B      0.0B      0.0B       0      0.00      0.00       1       0   50   FIFO  idle_inject/1
14:23:42        root        23    0.0%    0.0%    0.0%    0.0%    0.0%     1      0.00      0.00    0.0k    0.0k   0.0%    0.0k    0.0k      0.0B      0.0B      0.0B       0      0.92      0.00       1       0   99   FIFO  migration/1
14:23:42        root        24    0.0%    0.0%    0.0%    0.0%    0.0%     1      0.00      0.00    0.0k    0.0k   0.0%    0.0k    0.0k      0.0B      0.0B      0.0B       0     12.49      0.56       1       0    0 NORMAL  ksoftirqd/1
14:23:42        root        26    0.0%    0.0%    0.0%    0.0%    0.0%     1      0.00      0.00    0.0k    0.0k   0.0%    0.0k    0.0k      0.0B      0.0B      0.0B       0      0.00      0.00       1       0    0 NORMAL  kworker/1:0H-events_highpri
14:23:42        root        27    0.0%    0.0%    0.0%    0.0%    0.0%     2      0.00      0.00    0.0k    0.0k   0.0%    0.0k    0.0k      0.0B      0.0B      0.0B       0      0.00      0.00       1       0    0 NORMAL  cpuhp/2
14:23:42        root        28    0.0%    0.0%    0.0%    0.0%    0.0%     2      0.00      0.00    0.0k    0.0k   0.0%    0.0k    0.0k      0.0B      0.0B      0.0B       0      0.00      0.00       1       0   50   FIFO  idle_inject/2
14:23:42        root        29    0.0%    0.0%    0.0%    0.0%    0.0%     2      0.00      0.00    0.0k    0.0k   0.0%    0.0k    0.0k      0.0B      0.0B      0.0B       0      0.91      0.00       1       0   99   FIFO  migration/2
14:23:42        root        30    0.0%    0.0%    0.0%    0.0%    0.0%     2      0.00      0.00    0.0k    0.0k   0.0%    0.0k    0.0k      0.0B      0.0B      0.0B       0     12.07      0.57       1       0    0 NORMAL  ksoftirqd/2
14:23:42        root        32    0.0%    0.0%    0.0%    0.0%    0.0%     2      0.00      0.00    0.0k    0.0k   0.0%    0.0k    0.0k      0.0B      0.0B      0.0B       0      0.00      0.00       1       0    0 NORMAL  kworker/2:0H-events_highpri
14:23:42        root        33    0.0%    0.0%    0.0%    0.0%    0.0%     3      0.00      0.00    0.0k    0.0k   0.0%    0.0k    0.0k      0.0B      0.0B      0.0B       0      0.00      0.00       1       0    0 NORMAL  cpuhp/3
14:23:42        root        34    0.0%    0.0%    0.0%    0.0%    0.0%     3      0.00      0.00    0.0k    0.0k   0.0%    0.0k    0.0k      0.0B      0.0B      0.0B       0      0.00      0.00       1       0   50   FIFO  idle_inject/3
14:23:42        root        35    0.0%    0.0%    0.0%    0.0%    0.0%     3      0.00      0.00    0.0k    0.0k   0.0%    0.0k    0.0k      0.0B      0.0B      0.0B       0      0.91      0.00       1       0   99   FIFO  migration/3
14:23:42        root        36    0.0%    0.0%    0.0%    0.0%    0.0%     3      0.00      0.00    0.0k    0.0k   0.0%    0.0k    0.0k      0.0B      0.0B      0.0B       0     11.96      0.57       1       0    0 NORMAL  ksoftirqd/3
14:23:42        root        38    0.0%    0.0%    0.0%    0.0%    0.0%     3      0.00      0.00    0.0k    0.0k   0.0%    0.0k    0.0k      0.0B      0.0B      0.0B       0      0.00      0.00       1       0    0 NORMAL  kworker/3:0H-kblockd
14:23:42        root        39    0.0%    0.0%    0.0%    0.0%    0.0%     4      0.00      0.00    0.0k    0.0k   0.0%    0.0k    0.0k      0.0B      0.0B      0.0B       0      0.00      0.00       1       0    0 NORMAL  cpuhp/4
14:23:42        root        40    0.0%    0.0%    0.0%    0.0%    0.0%     4      0.00      0.00    0.0k    0.0k   0.0%    0.0k    0.0k      0.0B      0.0B      0.0B       0      0.00      0.00       1       0   50   FIFO  idle_inject/4
14:23:42        root        41    0.0%    0.0%    0.0%    0.0%    0.0%     4      0.00      0.00    0.0k    0.0k   0.0%    0.0k    0.0k      0.0B      0.0B      0.0B       0      0.91      0.00       1       0   99   FIFO  migration/4
14:23:42        root        42    0.0%    0.0%    0.0%    0.0%    0.0%     4      0.00      0.00    0.0k    0.0k   0.0%    0.0k    0.0k      0.0B      0.0B      0.0B       0     11.94      0.58       1       0    0 NORMAL  ksoftirqd/4
14:23:42        root        44    0.0%    0.0%    0.0%    0.0%    0.0%     4      0.00      0.00    0.0k    0.0k   0.0%    0.0k    0.0k      0.0B      0.0B      0.0B       0      0.00      0.00       1       0    0 NORMAL  kworker/4:0H-events_highpri
14:23:42        root        45    0.0%    0.0%    0.0%    0.0%    0.0%     5      0.00      0.00    0.0k    0.0k   0.0%    0.0k    0.0k      0.0B      0.0B      0.0B       0      0.00      0.00       1       0    0 NORMAL  cpuhp/5
14:23:42        root        46    0.0%    0.0%    0.0%    0.0%    0.0%     5      0.00      0.00    0.0k    0.0k   0.0%    0.0k    0.0k      0.0B      0.0B      0.0B       0      0.00      0.00       1       0   50   FIFO  idle_inject/5
14:23:42        root        47    0.0%    0.0%    0.0%    0.0%    0.0%     5      0.00      0.00    0.0k    0.0k   0.0%    0.0k    0.0k      0.0B      0.0B      0.0B       0      0.88      0.00       1       0   99   FIFO  migration/5
14:23:42        root        48    0.0%    0.1%    0.0%    0.0%    0.1%     5      0.00      0.00    0.0k    0.0k   0.0%    0.0k    0.0k      0.0B      0.0B      0.0B       0     31.51      1.50       1       0    0 NORMAL  ksoftirqd/5
14:23:42        root        50    0.0%    0.0%    0.0%    0.0%    0.0%     5      0.00      0.00    0.0k    0.0k   0.0%    0.0k    0.0k      0.0B      0.0B      0.0B       0      0.00      0.00       1       0    0 NORMAL  kworker/5:0H-events_highpri
14:23:42        root        51    0.0%    0.0%    0.0%    0.0%    0.0%     1      0.00      0.00    0.0k    0.0k   0.0%    0.0k    0.0k      0.0B      0.0B      0.0B       0      0.01      0.00       1       0    0 NORMAL  kdevtmpfs
14:23:42        root        52    0.0%    0.0%    0.0%    0.0%    0.0%     4      0.00      0.00    0.0k    0.0k   0.0%    0.0k    0.0k      0.0B      0.0B      0.0B       0      0.00      0.00       1       0    0 NORMAL  kworker/R-inet_
14:23:42        root        54    0.0%    0.0%    0.0%    0.0%    0.0%     0      0.00      0.00    0.0k    0.0k   0.0%    0.0k    0.0k      0.0B      0.0B      0.0B       0      0.02      0.00       1       0    0 NORMAL  kauditd
14:23:42        root        56    0.0%    0.0%    0.0%    0.0%    0.0%     1      0.00      0.00    0.0k    0.0k   0.0%    0.0k    0.0k      0.0B      0.0B      0.0B       0      0.01      0.00       1       0    0 NORMAL  khungtaskd
14:23:42        root        57    0.0%    0.0%    0.0%    0.0%    0.0%     4      0.00      0.00    0.0k    0.0k   0.0%    0.0k    0.0k      0.0B      0.0B      0.0B       0      0.00      0.00       1       0    0 NORMAL  oom_reaper
14:23:42        root        59    0.0%    0.0%    0.0%    0.0%    0.0%     5      0.00      0.00    0.0k    0.0k   0.0%    0.0k    0.0k      0.0B      0.0B      0.0B       0      0.00      0.00       1       0    0 NORMAL  kworker/R-write
14:23:42        root        60    0.0%    0.0%    0.0%    0.0%    0.0%     0      0.00      0.00    0.0k    0.0k   0.0%    0.0k    0.0k      0.0B      0.0B      0.0B       0      1.31      0.18       1       0    0 NORMAL  kcompactd0
14:23:42        root        61    0.0%    0.0%    0.0%    0.0%    0.0%     5      0.00      0.00    0.0k    0.0k   0.0%    0.0k    0.0k      0.0B      0.0B      0.0B       0      0.00      0.00       1       0    0 NORMAL  ksmd
14:23:42        root        62    0.0%    0.0%    0.0%    0.0%    0.0%     5      0.00      0.00    0.0k    0.0k   0.0%    0.0k    0.0k      0.0B      0.0B      0.0B       0      0.00      0.00       1       0    0 NORMAL  khugepaged
14:23:42        root        63    0.0%    0.0%    0.0%    0.0%    0.0%     5      0.00      0.00    0.0k    0.0k   0.0%    0.0k    0.0k      0.0B      0.0B      0.0B       0      0.00      0.00       1       0    0 NORMAL  kworker/R-kinte
14:23:42        root        64    0.0%    0.0%    0.0%    0.0%    0.0%     4      0.00      0.00    0.0k    0.0k   0.0%    0.0k    0.0k      0.0B      0.0B      0.0B       0      0.00      0.00       1       0    0 NORMAL  kworker/R-kbloc
14:23:42        root        65    0.0%    0.0%    0.0%    0.0%    0.0%     5      0.00      0.00    0.0k    0.0k   0.0%    0.0k    0.0k      0.0B      0.0B      0.0B       0      0.00      0.00       1       0    0 NORMAL  kworker/R-blkcg
14:23:42        root        66    0.0%    0.0%    0.0%    0.0%    0.0%     1      0.00      0.00    0.0k    0.0k   0.0%    0.0k    0.0k      0.0B      0.0B      0.0B       0      0.00      0.00       1       0   50   FIFO  irq/9-acpi
14:23:42        root        70    0.0%    0.0%    0.0%    0.0%    0.0%     2      0.00      0.00    0.0k    0.0k   0.0%    0.0k    0.0k      0.0B      0.0B      0.0B       0      0.00      0.00       1       0    0 NORMAL  kworker/R-tpm_d
14:23:42        root        71    0.0%    0.0%    0.0%    0.0%    0.0%     4      0.00      0.00    0.0k    0.0k   0.0%    0.0k    0.0k      0.0B      0.0B      0.0B       0      0.00      0.00       1       0    0 NORMAL  kworker/R-ata_s
14:23:42        root        72    0.0%    0.0%    0.0%    0.0%    0.0%     5      0.00      0.00    0.0k    0.0k   0.0%    0.0k    0.0k      0.0B      0.0B      0.0B       0      0.00      0.00       1       0    0 NORMAL  kworker/R-md
14:23:42        root        73    0.0%    0.0%    0.0%    0.0%    0.0%     1      0.00      0.00    0.0k    0.0k   0.0%    0.0k    0.0k      0.0B      0.0B      0.0B       0      0.00      0.00       1       0    0 NORMAL  kworker/R-md_bi
14:23:42        root        74    0.0%    0.0%    0.0%    0.0%    0.0%     4      0.00      0.00    0.0k    0.0k   0.0%    0.0k    0.0k      0.0B      0.0B      0.0B       0      0.00      0.00       1       0    0 NORMAL  kworker/R-edac-
14:23:42        root        75    0.0%    0.0%    0.0%    0.0%    0.0%     5      0.00      0.00    0.0k    0.0k   0.0%    0.0k    0.0k      0.0B      0.0B      0.0B       0      0.00      0.00       1       0    0 NORMAL  kworker/R-devfr
14:23:42        root        76    0.0%    0.0%    0.0%    0.0%    0.0%     2      0.00      0.00    0.0k    0.0k   0.0%    0.0k    0.0k      0.0B      0.0B      0.0B       0      0.00      0.00       1       0   50   FIFO  watchdogd
14:23:42        root        77    0.0%    0.0%    0.0%    0.0%    0.0%     0      0.00      0.00    0.0k    0.0k   0.0%    0.0k    0.0k      0.0B      0.0B      0.0B       0      6.98      0.10       1       0    0 NORMAL  kworker/0:1H-kblockd
14:23:42        root        78    0.0%    0.1%    0.0%    0.0%    0.1%     2      0.00      0.00    0.0k    0.0k   0.0%    0.0k    0.0k      0.0B      0.0B      0.0B       0      0.04      0.55       1       0    0 NORMAL  kswapd0
14:23:42        root        79    0.0%    0.0%    0.0%    0.0%    0.0%     4      0.00      0.00    0.0k    0.0k   0.0%    0.0k    0.0k      0.0B      0.0B      0.0B       0      0.00      0.00       1       0    0 NORMAL  ecryptfs-kthread
14:23:42        root        80    0.0%    0.0%    0.0%    0.0%    0.0%     2      0.00      0.00    0.0k    0.0k   0.0%    0.0k    0.0k      0.0B      0.0B      0.0B       0      0.00      0.00       1       0    0 NORMAL  kworker/R-kthro
14:23:42        root        81    0.0%    0.0%    0.0%    0.0%    0.0%     2      0.00      0.00    0.0k    0.0k   0.0%    0.0k    0.0k      0.0B      0.0B      0.0B       0      0.00      0.00       1       0   50   FIFO  irq/24-aerdrv
14:23:42        root        82    0.0%    0.0%    0.0%    0.0%    0.0%     3      0.00      0.00    0.0k    0.0k   0.0%    0.0k    0.0k      0.0B      0.0B      0.0B       0      0.00      0.00       1       0   50   FIFO  irq/25-aerdrv
14:23:42        root        83    0.0%    0.0%    0.0%    0.0%    0.0%     4      0.00      0.00    0.0k    0.0k   0.0%    0.0k    0.0k      0.0B      0.0B      0.0B       0      0.00      0.00       1       0   50   FIFO  irq/26-aerdrv
14:23:42        root        84    0.0%    0.0%    0.0%    0.0%    0.0%     5      0.00      0.00    0.0k    0.0k   0.0%    0.0k    0.0k      0.0B      0.0B      0.0B       0      0.00      0.00       1       0   50   FIFO  irq/27-aerdrv
14:23:42        root        85    0.0%    0.0%    0.0%    0.0%    0.0%     0      0.00      0.00    0.0k    0.0k   0.0%    0.0k    0.0k      0.0B      0.0B      0.0B       0      0.00      0.00       1       0   50   FIFO  irq/28-aerdrv
14:23:42        root        86    0.0%    0.0%    0.0%    0.0%    0.0%     1      0.00      0.00    0.0k    0.0k   0.0%    0.0k    0.0k      0.0B      0.0B      0.0B       0      0.00      0.00       1       0   50   FIFO  irq/29-aerdrv
14:23:42        root        87    0.0%    0.0%    0.0%    0.0%    0.0%     2      0.00      0.00    0.0k    0.0k   0.0%    0.0k    0.0k      0.0B      0.0B      0.0B       0      0.00      0.00       1       0   50   FIFO  irq/30-aerdrv
14:23:42        root        88    0.0%    0.0%    0.0%    0.0%    0.0%     3      0.00      0.00    0.0k    0.0k   0.0%    0.0k    0.0k      0.0B      0.0B      0.0B       0      0.00      0.00       1       0   50   FIFO  irq/31-aerdrv
14:23:42        root        89    0.0%    0.0%    0.0%    0.0%    0.0%     4      0.00      0.00    0.0k    0.0k   0.0%    0.0k    0.0k      0.0B      0.0B      0.0B       0      0.00      0.00       1       0   50   FIFO  irq/32-aerdrv
14:23:42        root        90    0.0%    0.0%    0.0%    0.0%    0.0%     5      0.00      0.00    0.0k    0.0k   0.0%    0.0k    0.0k      0.0B      0.0B      0.0B       0      0.00      0.00       1       0    0 NORMAL  kworker/R-acpi_
14:23:42        root        93    0.0%    0.0%    0.0%    0.0%    0.0%     2      0.00      0.00    0.0k    0.0k   0.0%    0.0k    0.0k      0.0B      0.0B      0.0B       0      0.00      0.00       1       0    0 NORMAL  scsi_eh_0
14:23:42        root        94    0.0%    0.0%    0.0%    0.0%    0.0%     1      0.00      0.00    0.0k    0.0k   0.0%    0.0k    0.0k      0.0B      0.0B      0.0B       0      0.00      0.00       1       0    0 NORMAL  kworker/R-scsi_
14:23:42        root        96    0.0%    0.0%    0.0%    0.0%    0.0%     3      0.00      0.00    0.0k    0.0k   0.0%    0.0k    0.0k      0.0B      0.0B      0.0B       0      6.23      0.08       1       0    0 NORMAL  kworker/3:1H-kblockd
14:23:42        root        98    0.0%    0.0%    0.0%    0.0%    0.0%     1      0.00      0.00    0.0k    0.0k   0.0%    0.0k    0.0k      0.0B      0.0B      0.0B       0      0.00      0.00       1       0    0 NORMAL  kworker/R-mld
14:23:42        root        99    0.0%    0.0%    0.0%    0.0%    0.0%     2      0.00      0.00    0.0k    0.0k   0.0%    0.0k    0.0k      0.0B      0.0B      0.0B       0      6.45      0.09       1       0    0 NORMAL  kworker/2:1H-kblockd
14:23:42        root       100    0.0%    0.0%    0.0%    0.0%    0.0%     3      0.00      0.00    0.0k    0.0k   0.0%    0.0k    0.0k      0.0B      0.0B      0.0B       0      0.00      0.00       1       0    0 NORMAL  kworker/R-ipv6_
14:23:42        root       107    0.0%    0.0%    0.0%    0.0%    0.0%     0      0.00      0.00    0.0k    0.0k   0.0%    0.0k    0.0k      0.0B      0.0B      0.0B       0      0.00      0.00       1       0    0 NORMAL  kworker/R-kstrp
14:23:42        root       110    0.0%    0.0%    0.0%    0.0%    0.0%     5      0.00      0.00    0.0k    0.0k   0.0%    0.0k    0.0k      0.0B      0.0B      0.0B       0      0.00      0.00       1       0    0 NORMAL  kworker/u41:0
14:23:42        root       115    0.0%    0.0%    0.0%    0.0%    0.0%     2      0.00      0.00    0.0k    0.0k   0.0%    0.0k    0.0k      0.0B      0.0B      0.0B       0      0.00      0.00       1       0    0 NORMAL  kworker/R-crypt
14:23:42        root       128    0.0%    0.0%    0.0%    0.0%    0.0%     5      0.00      0.00    0.0k    0.0k   0.0%    0.0k    0.0k      0.0B      0.0B      0.0B       0      0.00      0.00       1       0    0 NORMAL  kworker/R-charg
14:23:42        root       156    0.0%    0.0%    0.0%    0.0%    0.0%     4      0.00      0.00    0.0k    0.0k   0.0%    0.0k    0.0k      0.0B      0.0B      0.0B       0      6.23      0.09       1       0    0 NORMAL  kworker/4:1H-kblockd
14:23:42        root       171    0.0%    0.1%    0.0%    0.2%    0.1%     5      0.00      0.00    0.0k    0.0k   0.0%    0.0k    0.0k      0.0B      0.0B      0.0B       0     48.36      0.23       1       0    0 NORMAL  kworker/5:1H-kblockd
14:23:42        root       184    0.0%    0.0%    0.0%    0.0%    0.0%     1      0.00      0.00    0.0k    0.0k   0.0%    0.0k    0.0k      0.0B      0.0B      0.0B       0      6.64      0.10       1       0    0 NORMAL  kworker/1:1H-kblockd
14:23:42        root       193    0.0%    0.0%    0.0%    0.0%    0.0%     5      0.00      0.00    0.0k    0.0k   0.0%    0.0k    0.0k      0.0B      0.0B      0.0B       0      0.02      0.00       1       0    0 NORMAL  hwrng
14:23:42        root       194    0.0%    0.0%    0.0%    0.0%    0.0%     0      0.00      0.00    0.0k    0.0k   0.0%    0.0k    0.0k      0.0B      0.0B      0.0B       0      0.00      0.00       1       0    0 NORMAL  scsi_eh_1
14:23:42        root       195    0.0%    0.0%    0.0%    0.0%    0.0%     0      0.00      0.00    0.0k    0.0k   0.0%    0.0k    0.0k      0.0B      0.0B      0.0B       0      0.00      0.00       1       0    0 NORMAL  kworker/R-scsi_
14:23:42        root       196    0.0%    0.0%    0.0%    0.0%    0.0%     5      0.00      0.00    0.0k    0.0k   0.0%    0.0k    0.0k      0.0B      0.0B      0.0B       0      0.00      0.00       1       0    0 NORMAL  scsi_eh_2
14:23:42        root       197    0.0%    0.0%    0.0%    0.0%    0.0%     1      0.00      0.00    0.0k    0.0k   0.0%    0.0k    0.0k      0.0B      0.0B      0.0B       0      0.00      0.00       1       0    0 NORMAL  kworker/R-scsi_
14:23:42        root       204    0.0%    0.0%    0.0%    0.0%    0.0%     1      0.00      0.00    0.0k    0.0k   0.0%    0.0k    0.0k      0.0B      0.0B      0.0B       0      0.00      0.00       1       0    0 NORMAL  scsi_eh_3
14:23:42        root       205    0.0%    0.0%    0.0%    0.0%    0.0%     2      0.00      0.00    0.0k    0.0k   0.0%    0.0k    0.0k      0.0B      0.0B      0.0B       0      0.00      0.00       1       0    0 NORMAL  kworker/R-scsi_
14:23:42        root       213    0.0%    0.0%    0.0%    0.0%    0.0%     2      0.00      0.00    0.0k    0.0k   0.0%    0.0k    0.0k      0.0B      0.0B      0.0B       0      0.00      0.00       1       0    0 NORMAL  scsi_eh_4
14:23:42        root       214    0.0%    0.0%    0.0%    0.0%    0.0%     4      0.00      0.00    0.0k    0.0k   0.0%    0.0k    0.0k      0.0B      0.0B      0.0B       0      0.00      0.00       1       0    0 NORMAL  kworker/R-scsi_
14:23:42        root       219    0.0%    0.0%    0.0%    0.0%    0.0%     3      0.00      0.00    0.0k    0.0k   0.0%    0.0k    0.0k      0.0B      0.0B      0.0B       0      0.00      0.00       1       0    0 NORMAL  scsi_eh_5
14:23:42        root       221    0.0%    0.0%    0.0%    0.0%    0.0%     2      0.00      0.00    0.0k    0.0k   0.0%    0.0k    0.0k      0.0B      0.0B      0.0B       0      0.00      0.00       1       0    0 NORMAL  kworker/R-scsi_
14:23:42        root       222    0.0%    0.0%    0.0%    0.0%    0.0%     4      0.00      0.00    0.0k    0.0k   0.0%    0.0k    0.0k      0.0B      0.0B      0.0B       0      0.00      0.00       1       0    0 NORMAL  scsi_eh_6
14:23:42        root       223    0.0%    0.0%    0.0%    0.0%    0.0%     4      0.00      0.00    0.0k    0.0k   0.0%    0.0k    0.0k      0.0B      0.0B      0.0B       0      0.00      0.00       1       0    0 NORMAL  kworker/R-scsi_
14:23:42        root       257    0.0%    0.0%    0.0%    0.0%    0.0%     5      0.00      0.00    0.0k    0.0k   0.0%    0.0k    0.0k      0.0B      0.0B      0.0B       0      0.00      0.00       1       0    0 NORMAL  kworker/R-raid5
14:23:42        root       294    0.0%    0.3%    0.0%    0.3%    0.3%     4      0.00      0.00    0.0k    0.0k   0.0%    0.0k    0.0k      0.0B     44.8k      0.0B       0     50.90     13.11       1       0    0 NORMAL  jbd2/sda1-8
14:23:42        root       295    0.0%    0.0%    0.0%    0.0%    0.0%     2      0.00      0.00    0.0k    0.0k   0.0%    0.0k    0.0k      0.0B      0.0B      0.0B       0      0.00      0.00       1       0    0 NORMAL  kworker/R-ext4-
14:23:42        root       369    0.1%    0.1%    0.0%    0.1%    0.2%     3     19.21      0.01  194.7M  108.3M   0.7%  132.0k   20.0k    764.3B     75.5k      0.0B       0      4.34      2.12       1      53    0 NORMAL  systemd-journal
14:23:42        root       389    0.0%    0.0%    0.0%    0.0%    0.0%     5      0.00      0.00    0.0k    0.0k   0.0%    0.0k    0.0k      0.0B      0.0B      0.0B       0      0.00      0.00       1       0    0 NORMAL  kworker/R-kmpat
14:23:42        root       390    0.0%    0.0%    0.0%    0.0%    0.0%     0      0.00      0.00    0.0k    0.0k   0.0%    0.0k    0.0k      0.0B      0.0B      0.0B       0      0.00      0.00       1       0    0 NORMAL  kworker/R-kmpat
14:23:42        root       414    0.0%    0.0%    0.0%    0.0%    0.0%     5      0.00      0.00    0.0k    0.0k   0.0%    0.0k    0.0k      0.0B      0.0B      0.0B       0      0.00      0.00       1       0    0 NORMAL  kworker/R-dm_bu
14:23:42        root       420    0.0%    0.0%    0.0%    0.0%    0.0%     4      0.15      0.00  282.3M   26.4M   0.2%  132.0k  132.0k     94.1B      0.0B      0.0B       0      0.80      0.00       7      10   99     RR  multipathd
14:23:42        root       425    0.0%    0.0%    0.0%    0.0%    0.0%     0      0.00      0.00    0.0k    0.0k   0.0%    0.0k    0.0k      0.0B      0.0B      0.0B       0      0.00      0.00       1       0    0 NORMAL  kworker/R-iscsi
14:23:42        root       429    0.0%    0.0%    0.0%    0.0%    0.0%     5      0.48      0.00   26.0M    7.9M   0.0%  132.0k   16.0k      4.3k      0.0B      0.0B       0      0.13      0.13       1      15    0 NORMAL  systemd-udevd
14:23:42        root       448    0.0%    0.0%    0.0%    0.0%    0.0%     5      0.00      0.00    0.0k    0.0k   0.0%    0.0k    0.0k      0.0B      0.0B      0.0B       0      0.00      0.00       1       0    1   FIFO  psimon
14:23:42        root       504    0.0%    0.0%    0.0%    0.0%    0.0%     2      0.00      0.00    0.0k    0.0k   0.0%    0.0k    0.0k      0.0B      0.0B      0.0B       0      0.00      0.00       1       0    0 NORMAL  kworker/R-nbd0-
14:23:42        root       515    0.0%    0.0%    0.0%    0.0%    0.0%     4      0.00      0.00    0.0k    0.0k   0.0%    0.0k    0.0k      0.0B      0.0B      0.0B       0      0.00      0.00       1       0    0 NORMAL  kworker/R-nbd1-
14:23:42        root       516    0.0%    0.0%    0.0%    0.0%    0.0%     3      0.00      0.00    0.0k    0.0k   0.0%    0.0k    0.0k      0.0B      0.0B      0.0B       0      0.00      0.00       1       0    0 NORMAL  kworker/R-nbd2-
14:23:42        root       536    0.0%    0.0%    0.0%    0.0%    0.0%     0      0.00      0.00    0.0k    0.0k   0.0%    0.0k    0.0k      0.0B      0.0B      0.0B       0      0.00      0.00       1       0    0 NORMAL  kworker/R-nbd3-
14:23:42        root       540    0.0%    0.1%    0.0%    0.0%    0.1%     5      0.20      0.00    1.2G   18.3M   0.1%  132.0k   16.0k    153.5k    177.9k     16.0k       0      0.31      0.07      18      26    0 NORMAL  lxd-agent
14:23:42        root       570    0.0%    0.0%    0.0%    0.0%    0.0%     4      0.00      0.00    0.0k    0.0k   0.0%    0.0k    0.0k      0.0B      0.0B      0.0B       0      0.00      0.00       1       0    0 NORMAL  kworker/R-nbd4-
14:23:42        root       585    0.0%    0.0%    0.0%    0.0%    0.0%     4      0.00      0.00    0.0k    0.0k   0.0%    0.0k    0.0k      0.0B      0.0B      0.0B       0      0.00      0.00       1       0    0 NORMAL  kworker/R-nbd5-
14:23:42        root       587    0.0%    0.0%    0.0%    0.0%    0.0%     3      0.00      0.00    0.0k    0.0k   0.0%    0.0k    0.0k      0.0B      0.0B      0.0B       0      0.00      0.00       1       0    0 NORMAL  kworker/R-nbd6-
14:23:42        root       591    0.0%    0.0%    0.0%    0.0%    0.0%     2      0.00      0.00    0.0k    0.0k   0.0%    0.0k    0.0k      0.0B      0.0B      0.0B       0      0.00      0.00       1       0    0 NORMAL  kworker/R-nbd7-
14:23:42        root       592    0.0%    0.0%    0.0%    0.0%    0.0%     2      0.00      0.00    0.0k    0.0k   0.0%    0.0k    0.0k      0.0B      1.6B      0.0B       0      0.00      0.00       1       0    0 NORMAL  jbd2/sda16-8
14:23:42        root       593    0.0%    0.0%    0.0%    0.0%    0.0%     4      0.00      0.00    0.0k    0.0k   0.0%    0.0k    0.0k      0.0B      0.0B      0.0B       0      0.00      0.00       1       0    0 NORMAL  kworker/R-ext4-
14:23:42        root       597    0.0%    0.0%    0.0%    0.0%    0.0%     4      0.00      0.00    0.0k    0.0k   0.0%    0.0k    0.0k      0.0B      0.0B      0.0B       0      0.00      0.00       1       0    0 NORMAL  kworker/R-nbd8-